ITEM: TIMESTEP 
2000 
ITEM: NUMBER OF ATOMS 
512 
ITEM: BOX BOUNDS 
0.000000e+00 2.570239e+01 xlo xhi 
0.000000e+00 2.570239e+01 xlo xhi 
0.000000e+00 2.570239e+01 xlo xhi 
ITEM: ATOMS id type x y z 
0 0 2.654920e-01 2.548110e+01 2.548236e+01 
1 1 1.622203e+00 2.227204e+01 5.581870e+00 
2 2 2.214704e+00 2.565029e+01 4.980864e+00 
3 3 2.082203e+00 2.348722e+01 9.098438e+00 
4 4 2.405922e+01 2.391732e+01 1.091817e+01 
5 5 2.551321e+01 1.606904e+00 1.496295e+01 
6 6 3.666012e+00 2.556579e+01 1.794666e+01 
7 7 2.541858e+01 2.520213e+01 2.326708e+01 
8 8 2.650692e-01 2.023033e+00 2.420590e+00 
9 9 1.507116e+00 2.615608e+00 5.299392e+00 
10 10 1.625416e+00 1.997115e+00 7.833983e+00 
11 11 1.405302e+00 2.033663e+00 1.036693e+01 
12 12 2.708338e+00 1.736241e+00 1.295345e+01 
13 13 2.059263e+00 1.693283e+00 1.719029e+01 
14 14 5.473827e+00 4.136403e-01 2.327858e+01 
15 15 2.226643e+01 2.384015e+00 2.495679e+01 
16 16 2.364386e+01 6.718318e+00 6.496707e-01 
17 17 1.631470e+00 5.070768e+00 9.152744e-01 
18 18 3.278982e+00 7.195675e+00 1.032835e+01 
19 19 2.485203e+01 9.179186e+00 1.323868e+01 
20 20 6.528111e-01 5.632376e+00 1.316832e+01 
21 21 1.443288e+00 4.503499e+00 1.552446e+01 
22 22 1.322583e+00 3.120764e+00 1.913502e+01 
23 23 2.398256e+01 7.751191e+00 2.236678e+01 
24 24 2.440494e+01 1.035313e+01 2.410294e+00 
25 25 2.529764e+01 7.648530e+00 4.000472e+00 
26 26 1.348699e+00 1.140738e+01 6.973272e+00 
27 27 2.419115e+01 9.502136e+00 9.549918e+00 
28 28 4.098600e+00 8.437492e+00 1.466209e+01 
29 29 9.001416e-01 9.030723e+00 1.558358e+01 
30 30 2.301675e+01 1.058161e+01 1.883147e+01 
31 31 2.279515e+01 1.011813e+01 2.361990e+01 
32 32 5.257006e-01 1.142230e+01 4.715477e-01 
33 33 2.087071e+01 1.435060e+01 4.831972e-01 
34 34 2.146405e+00 1.529983e+01 3.483818e+00 
35 35 2.491147e+01 1.259667e+01 1.122235e+01 
36 36 2.322438e+01 1.148218e+01 1.356860e+01 
37 37 2.291341e+01 1.523209e+01 1.142934e+01 
38 38 2.382698e+01 8.941140e+00 1.667015e+01 
39 39 1.025233e+00 1.516333e+01 2.072688e+01 
40 40 3.225666e+00 1.241987e+01 2.382461e+01 
41 41 2.368305e+01 1.411402e+01 2.193584e+00 
42 42 2.120192e+01 1.560824e+01 4.493801e+00 
43 43 2.253357e+01 1.061234e+01 6.836340e+00 
44 44 2.437139e+01 1.748519e+01 1.166329e+01 
45 45 2.459806e+01 1.547879e+01 1.492790e+01 
46 46 2.533263e+01 1.735097e+01 2.025750e+01 
47 47 2.409701e+01 1.783773e+01 2.267049e+01 
48 48 2.315702e+01 2.012450e+01 1.129458e-01 
49 49 7.696115e-01 1.772869e+01 2.966061e+00 
50 50 9.310631e-01 1.725355e+01 5.653392e+00 
51 51 2.384808e+01 2.121718e+01 1.088869e+01 
52 52 8.472659e-01 1.827748e+01 1.441777e+01 
53 53 2.393353e+01 1.830959e+01 1.420634e+01 
54 54 6.367251e-01 1.961318e+01 1.946718e+01 
55 55 6.365516e-01 1.677044e+01 2.510460e+01 
56 56 5.229843e-01 2.202967e+01 2.562005e+01 
57 57 2.498484e+01 1.986426e+01 3.438188e+00 
58 58 2.556943e+01 1.880198e+01 9.014986e+00 
59 59 3.609565e-01 2.065098e+01 1.247811e+01 
60 60 2.518127e+01 2.420774e+01 1.597265e+01 
61 61 3.364214e-01 2.059430e+01 1.617638e+01 
62 62 2.370214e+01 1.444750e+00 2.035917e+01 
63 63 2.391580e-01 2.389920e+01 2.102581e+01 
64 64 5.641987e+00 5.291733e-01 2.123935e+00 
65 65 3.149520e+00 1.097141e+00 2.360720e+00 
66 66 4.264690e+00 1.488697e+00 6.713345e+00 
67 67 4.764182e+00 2.337937e+01 9.228400e+00 
68 68 2.889433e+00 2.342369e+01 1.189431e+01 
69 69 4.498388e+00 1.925492e+00 1.513588e+01 
70 70 4.217998e+00 1.850082e+00 1.949298e+01 
71 71 4.735661e+00 2.370290e+01 2.536646e+01 
72 72 8.521538e+00 4.729005e+00 2.623299e+00 
73 73 5.837545e+00 4.126057e+00 1.332101e+00 
74 74 4.502186e+00 6.986353e+00 5.189000e+00 
75 75 2.211003e+00 6.373245e+00 7.933806e+00 
76 76 3.762480e+00 4.261905e+00 1.427670e+01 
77 77 4.686258e+00 3.196478e+00 1.719476e+01 
78 78 3.798813e+00 2.644512e+00 2.228449e+01 
79 79 1.079533e+00 7.148656e+00 2.305768e+01 
80 80 7.499494e+00 6.817014e+00 3.744179e+00 
81 81 4.986101e+00 6.790710e+00 1.471609e+00 
82 82 6.594431e+00 1.039000e+01 6.108303e+00 
83 83 1.335444e+00 5.071167e+00 1.003576e+01 
84 84 5.708436e+00 5.900449e+00 1.253725e+01 
85 85 2.572490e+00 7.190766e+00 1.836658e+01 
86 86 4.154944e+00 1.057088e+01 1.754451e+01 
87 87 2.130877e+00 8.832098e+00 2.091280e+01 
88 88 2.542497e+00 7.903427e+00 3.314941e+00 
89 89 4.197622e+00 1.046029e+01 4.885615e+00 
90 90 2.586839e+00 1.252901e+01 5.441284e+00 
91 91 1.635115e+00 1.101134e+01 1.415626e+01 
92 92 4.574783e+00 1.046797e+01 1.285825e+01 
93 93 2.405652e+01 1.313277e+01 1.753225e+01 
94 94 2.535408e+01 8.703558e+00 1.897114e+01 
95 95 2.894162e+00 1.023330e+01 1.159125e+00 
96 96 1.313004e+00 1.133586e+01 3.221629e+00 
97 97 2.906142e+00 1.329314e+01 1.740691e+00 
98 98 4.077354e+00 1.698063e+01 5.556055e+00 
99 99 8.923913e+00 1.522026e+01 1.432703e+01 
100 100 2.140641e+00 1.289258e+01 1.120208e+01 
101 101 6.745419e+00 1.288583e+01 1.500283e+01 
102 102 1.607170e+00 1.312683e+01 1.701615e+01 
103 103 1.526799e+00 1.300037e+01 2.168295e+01 
104 104 3.010618e+00 1.947696e+01 2.496850e+01 
105 105 3.641601e+00 1.657753e+01 1.378232e+00 
106 106 6.379080e+00 1.634901e+01 7.460535e+00 
107 107 2.471241e+01 1.236744e+01 7.989418e+00 
108 108 3.707086e+00 1.863441e+01 1.563590e+01 
109 109 3.385563e-01 1.561706e+01 1.733552e+01 
110 110 6.328117e-01 1.878851e+01 2.240777e+01 
111 111 1.021649e+00 1.424401e+01 2.404827e+01 
112 112 3.331478e+00 2.162460e+01 9.988864e-01 
113 113 2.426614e+00 1.963046e+01 3.344678e+00 
114 114 2.997005e+00 1.779302e+01 8.646083e+00 
115 115 1.298022e+00 1.819682e+01 1.089158e+01 
116 116 2.978477e+00 1.942484e+01 1.258012e+01 
117 117 2.049479e+00 1.916043e+01 1.756576e+01 
118 118 3.100292e+00 2.203657e+01 1.988255e+01 
119 119 2.516617e+00 2.183815e+01 2.348421e+01 
120 120 3.622702e+00 3.306715e+00 2.484855e+01 
121 121 1.876797e+00 1.965035e+01 6.528147e+00 
122 122 3.950358e+00 2.381420e+01 6.466548e+00 
123 123 5.402210e-01 2.144872e+01 9.569811e+00 
124 124 1.963321e+00 2.370984e+01 1.491534e+01 
125 125 4.691664e+00 2.333477e+01 1.715493e+01 
126 126 2.502152e-01 2.997620e-01 1.946509e+01 
127 127 2.933613e+00 2.484829e+01 2.190480e+01 
128 128 1.145570e+01 2.441501e+01 2.717525e+00 
129 129 8.440587e+00 2.195879e+01 2.235375e+00 
130 130 4.197398e+00 4.670491e+00 6.095818e+00 
131 131 7.977173e+00 2.749639e+00 1.017844e+01 
132 132 5.285740e+00 2.440330e+01 1.294825e+01 
133 133 6.425023e+00 2.462923e+01 1.531836e+01 
134 134 6.099747e+00 8.357881e-01 1.705341e+01 
135 135 8.021202e+00 4.117818e-01 2.361527e+01 
136 136 5.293550e+00 6.457011e+00 2.390336e+01 
137 137 6.654622e+00 2.094420e+00 3.787727e+00 
138 138 5.769262e+00 4.675982e+00 4.127393e+00 
139 139 5.369239e+00 3.223992e+00 1.197303e+01 
140 140 8.461745e+00 1.814142e+00 1.661264e+01 
141 141 7.001231e+00 1.479646e+00 1.421119e+01 
142 142 3.723542e+00 5.990539e+00 2.171533e+01 
143 143 1.252880e+00 3.994071e+00 2.412995e+01 
144 144 9.734293e+00 6.774885e+00 9.955791e-01 
145 145 1.231642e+01 5.306136e+00 3.410021e-01 
146 146 6.325321e+00 9.915914e+00 9.086705e+00 
147 147 6.480347e+00 7.207427e+00 7.326306e+00 
148 148 5.414081e+00 8.583113e+00 1.110396e+01 
149 149 7.674584e+00 7.337166e+00 1.160569e+01 
150 150 6.656191e+00 3.954171e+00 1.550464e+01 
151 151 6.293794e+00 4.064029e+00 2.131735e+01 
152 152 3.793893e+00 9.505048e+00 2.300878e+01 
153 153 1.152235e+01 9.918105e+00 2.325517e+00 
154 154 2.775915e+00 1.239872e+01 8.698048e+00 
155 155 4.805558e+00 1.169545e+01 1.041440e+01 
156 156 6.623994e+00 7.374442e+00 1.590217e+01 
157 157 8.526538e+00 1.201386e+01 1.796088e+01 
158 158 5.675623e+00 1.299447e+01 1.730318e+01 
159 159 3.202390e+00 1.119441e+01 2.043350e+01 
160 160 8.696654e+00 1.196391e+01 2.509879e+01 
161 161 4.951266e+00 9.372480e+00 2.002468e-01 
162 162 2.309644e+00 1.528266e+01 7.503567e+00 
163 163 8.727630e+00 1.355004e+01 1.195826e+01 
164 164 6.563186e+00 1.003769e+01 1.611513e+01 
165 165 1.011105e+01 1.583963e+01 1.681722e+01 
166 166 7.340546e+00 1.591209e+01 1.761444e+01 
167 167 6.944513e+00 9.121478e+00 2.449101e+01 
168 168 6.007016e+00 1.363593e+01 3.446132e+00 
169 169 8.458564e+00 1.580297e+01 4.208285e+00 
170 170 9.322045e+00 1.375202e+01 7.069680e+00 
171 171 5.233537e+00 1.864074e+01 7.578664e+00 
172 172 5.285142e+00 1.870526e+01 1.102390e+01 
173 173 4.265023e+00 1.623476e+01 1.613341e+01 
174 174 2.233736e+00 1.694090e+01 2.136765e+01 
175 175 2.966894e+00 1.437802e+01 1.920236e+01 
176 176 5.633677e+00 1.790385e+01 2.377284e+01 
177 177 6.461883e+00 1.713086e+01 3.133870e+00 
178 178 3.982940e+00 2.139336e+01 7.293196e+00 
179 179 8.689101e+00 1.870083e+01 8.565230e+00 
180 180 3.388422e+00 2.026024e+01 9.641600e+00 
181 181 5.564932e+00 1.967900e+01 1.413748e+01 
182 182 7.677145e+00 2.074849e+01 2.076572e+01 
183 183 3.370681e+00 1.956861e+01 2.187835e+01 
184 184 6.440153e+00 2.135718e+01 7.521540e-01 
185 185 3.522624e+00 2.268709e+01 3.483059e+00 
186 186 6.363366e+00 2.280983e+01 5.753384e+00 
187 187 7.004786e+00 2.226130e+01 9.656487e+00 
188 188 7.587922e+00 2.423066e+01 7.472997e+00 
189 189 8.945532e+00 2.313529e+01 1.302098e+01 
190 190 4.860437e+00 2.285181e+01 2.189655e+01 
191 191 5.423227e+00 2.065633e+01 2.382593e+01 
192 192 1.527518e+01 2.507425e+01 2.157440e+00 
193 193 8.797737e+00 1.492429e+00 2.320210e+00 
194 194 7.095899e+00 2.529243e+01 5.246189e+00 
195 195 8.983007e+00 2.216254e-01 1.193103e+01 
196 196 1.298662e+01 4.574963e+00 1.181867e+01 
197 197 9.174074e+00 2.392125e+01 1.665149e+01 
198 198 9.250600e+00 2.513480e+01 2.131271e+01 
199 199 1.011448e+01 1.804477e+00 2.225399e+01 
200 200 9.377277e+00 3.086658e+00 2.537231e+01 
201 201 1.125807e+01 3.550182e+00 3.699093e+00 
202 202 8.670490e+00 3.869898e+00 5.450716e+00 
203 203 1.087460e+01 2.570718e+00 1.011505e+01 
204 204 9.910142e+00 3.650746e+00 1.291314e+01 
205 205 1.013386e+01 5.781092e+00 1.616245e+01 
206 206 7.959605e+00 3.016480e+00 1.898153e+01 
207 207 9.283825e+00 5.044237e+00 2.262167e+01 
208 208 1.138433e+01 6.881603e+00 2.360351e+01 
209 209 1.218523e+01 3.396636e+00 6.032903e+00 
210 210 9.215832e+00 6.837343e+00 7.337792e+00 
211 211 1.071787e+01 6.115951e+00 1.139722e+01 
212 212 7.764127e+00 1.018420e+01 1.187620e+01 
213 213 7.615035e+00 9.626297e+00 2.025810e+01 
214 214 8.106560e+00 6.014117e+00 1.791185e+01 
215 215 1.253616e+01 8.449099e+00 2.016625e+01 
216 216 1.512356e+01 6.246574e+00 2.949145e-01 
217 217 7.593150e+00 9.070165e+00 1.869706e+00 
218 218 1.296653e+01 8.152368e+00 7.215989e+00 
219 219 1.138824e+01 8.218593e+00 9.807837e+00 
220 220 9.313154e+00 9.421947e+00 7.762688e+00 
221 221 8.629009e+00 8.801685e+00 1.740346e+01 
222 222 9.355407e+00 9.154108e+00 2.338305e+01 
223 223 9.724233e+00 9.482191e+00 2.336021e-01 
224 224 1.056175e+01 1.434247e+01 4.693402e+00 
225 225 9.316537e+00 1.046629e+01 5.174415e+00 
226 226 1.458479e+01 1.019956e+01 8.149766e+00 
227 227 1.090562e+01 1.255920e+01 9.004654e+00 
228 228 8.678242e+00 1.806962e+01 1.406678e+01 
229 229 9.352352e+00 1.352597e+01 1.626132e+01 
230 230 1.024912e+01 1.017671e+01 1.942988e+01 
231 231 6.088868e+00 1.410528e+01 2.049673e+01 
232 232 6.681386e+00 1.540113e+01 1.081611e+00 
233 233 1.226730e+01 1.597523e+01 6.205006e+00 
234 234 9.941908e+00 1.650499e+01 7.939484e+00 
235 235 7.220591e+00 1.574949e+01 9.897306e+00 
236 236 8.506955e+00 1.861902e+01 1.128587e+01 
237 237 1.234261e+01 1.957087e+01 1.584398e+01 
238 238 4.687723e+00 1.742167e+01 2.059929e+01 
239 239 6.963031e+00 1.405570e+01 2.351992e+01 
240 240 1.007566e+01 1.567311e+01 2.503808e+01 
241 241 7.315764e+00 1.807612e+01 5.366259e+00 
242 242 6.692005e+00 2.044060e+01 6.863205e+00 
243 243 9.329762e+00 2.189844e+01 8.830823e+00 
244 244 1.047570e+01 2.004295e+01 1.077980e+01 
245 245 7.240031e+00 2.200513e+01 1.802336e+01 
246 246 1.149827e+01 2.028904e+01 2.036085e+01 
247 247 8.999507e+00 1.358143e+01 2.172647e+01 
248 248 8.126695e+00 1.826235e+01 1.443123e+00 
249 249 7.594109e+00 2.051662e+01 4.126802e+00 
250 250 1.301318e+01 2.200933e+01 1.748467e+00 
251 251 1.071424e+01 2.204426e+01 4.137082e+00 
252 252 8.013613e+00 2.024881e+01 1.507944e+01 
253 253 9.441237e+00 2.316108e+01 1.909033e+01 
254 254 7.858730e+00 2.387981e+01 2.561366e+01 
255 255 8.958327e+00 1.830914e+01 2.405059e+01 
256 256 1.544207e+01 2.496327e+01 2.445835e+01 
257 257 1.829879e+01 2.407328e+01 8.408155e+00 
258 258 1.755698e+01 2.132808e+01 7.828906e+00 
259 259 1.028848e+01 2.401397e+01 6.459019e+00 
260 260 1.043496e+01 1.598025e-01 9.466711e+00 
261 261 1.131872e+01 1.123343e+00 1.253262e+01 
262 262 1.437510e+01 7.306745e-03 1.783701e+01 
263 263 1.180985e+01 2.528464e+01 2.208076e+01 
264 264 1.244958e+01 1.105784e+00 2.544776e+01 
265 265 1.331719e+01 2.915243e+00 9.558676e+00 
266 266 8.904343e+00 4.643931e+00 8.780608e+00 
267 267 1.341970e+01 5.755514e+00 8.109830e+00 
268 268 1.129721e+01 6.909609e+00 1.385415e+01 
269 269 1.284752e+01 5.746865e+00 1.916244e+01 
270 270 1.270976e+01 1.834857e+00 1.866335e+01 
271 271 1.489175e+01 3.327038e+00 2.097129e+01 
272 272 1.460377e+01 3.667329e+00 2.332039e+00 
273 273 1.012096e+01 6.545668e+00 4.656130e+00 
274 274 1.199038e+01 8.643297e+00 4.737777e+00 
275 275 1.527622e+01 7.895512e+00 8.976908e+00 
276 276 9.079602e+00 8.509339e+00 1.372219e+01 
277 277 1.410813e+01 7.389217e+00 1.212156e+01 
278 278 1.125219e+01 8.298454e+00 1.734262e+01 
279 279 1.253464e+01 4.843511e+00 2.190798e+01 
280 280 1.363782e+01 9.833701e+00 4.266625e-01 
281 281 1.515628e+01 1.344085e+01 2.536086e+01 
282 282 1.441272e+01 9.414635e+00 3.006447e+00 
283 283 1.543344e+01 7.734345e+00 6.139603e+00 
284 284 1.642216e+01 7.857413e+00 1.322050e+01 
285 285 1.104586e+01 1.097743e+01 1.261623e+01 
286 286 1.117734e+01 1.150561e+01 1.698528e+01 
287 287 1.435905e+01 1.159274e+01 2.386945e+01 
288 288 1.158128e+01 1.091707e+01 2.235964e+01 
289 289 1.247194e+01 1.132140e+01 4.702576e+00 
290 290 1.360547e+01 1.385804e+01 5.166361e+00 
291 291 1.788567e+01 8.477407e+00 9.272803e+00 
292 292 1.357114e+01 9.574833e+00 1.063687e+01 
293 293 1.281627e+01 1.554709e+01 1.774290e+01 
294 294 1.743275e+01 1.582307e+01 1.878568e+01 
295 295 1.235543e+01 1.335340e+01 2.304490e+01 
296 296 1.122978e+01 1.413305e+01 1.143721e+00 
297 297 1.150055e+01 1.669458e+01 3.564273e+00 
298 298 1.398693e+01 1.919509e+01 4.761350e+00 
299 299 1.278081e+01 1.658355e+01 1.116854e+01 
300 300 1.257280e+01 1.395812e+01 1.088218e+01 
301 301 1.333294e+01 2.009150e+01 1.235255e+01 
302 302 8.210002e+00 1.707207e+01 2.023072e+01 
303 303 1.149503e+01 1.746703e+01 2.336840e+01 
304 304 1.164354e+01 1.932618e+01 2.549067e+00 
305 305 1.023721e+01 1.752099e+01 5.629927e+00 
306 306 1.225601e+01 1.770578e+01 8.633660e+00 
307 307 1.118589e+01 1.417838e+01 1.442165e+01 
308 308 1.428208e+01 2.110996e+01 1.643171e+01 
309 309 1.059409e+01 2.229617e+01 1.521499e+01 
310 310 1.172846e+01 2.257201e+01 1.868486e+01 
311 311 1.321976e+01 1.948423e+01 2.228474e+01 
312 312 1.019963e+01 2.117165e+01 2.561718e+01 
313 313 1.482217e+01 2.289236e+01 4.887332e+00 
314 314 1.183531e+01 1.986775e+01 6.534128e+00 
315 315 1.388739e+01 2.238830e+01 1.343628e+01 
316 316 1.077183e+01 2.451181e+01 1.387577e+01 
317 317 1.232480e+01 2.459916e+01 1.622744e+01 
318 318 1.072859e+01 3.140877e-01 1.898676e+01 
319 319 1.094186e+01 2.124108e+01 2.302357e+01 
320 320 1.790219e+01 2.366920e+01 2.433067e+01 
321 321 1.946633e+01 2.555941e+01 2.534137e+01 
322 322 1.741222e+01 2.409894e+01 1.849400e+00 
323 323 1.543443e+01 2.183532e+01 1.029626e+01 
324 324 1.332301e+01 2.534555e+01 1.391561e+01 
325 325 1.966697e+01 1.336706e-01 1.502279e+01 
326 326 1.997482e+01 2.919509e+00 1.903326e+01 
327 327 1.379361e+01 3.982422e+00 2.479396e+01 
328 328 1.578186e+01 2.555587e+01 6.641314e+00 
329 329 2.114752e+01 1.777435e+00 4.370432e+00 
330 330 1.653783e+01 5.083888e+00 6.927215e+00 
331 331 1.758237e+01 4.244276e+00 1.153786e+01 
332 332 1.368136e+01 1.172408e+00 1.144274e+01 
333 333 1.931838e+01 5.379975e+00 1.873928e+01 
334 334 1.088533e+01 1.244728e+00 1.621812e+01 
335 335 1.515261e+01 5.404750e+00 2.309811e+01 
336 336 2.002528e+01 4.144535e+00 2.528489e+01 
337 337 1.363874e+01 6.334883e+00 4.391726e+00 
338 338 1.594058e+01 4.315265e+00 4.515949e+00 
339 339 1.936016e+01 4.150022e+00 4.842926e+00 
340 340 1.410910e+01 2.742957e+00 1.630110e+01 
341 341 1.802059e+01 5.082510e+00 1.643244e+01 
342 342 9.345224e+00 4.989099e+00 2.000848e+01 
343 343 1.346599e+01 8.496270e+00 2.388817e+01 
344 344 1.809381e+01 7.924212e+00 2.272465e+01 
345 345 1.747113e+01 5.254796e+00 1.545300e+00 
346 346 1.541219e+01 1.185079e+01 2.565818e+00 
347 347 1.796869e+01 8.866849e+00 4.715643e+00 
348 348 1.525951e+01 5.055519e+00 1.340249e+01 
349 349 1.807258e+01 9.193282e+00 1.463698e+01 
350 350 1.518052e+01 9.034342e+00 1.916011e+01 
351 351 1.733708e+01 8.103808e+00 1.750046e+01 
352 352 1.662588e+01 1.100385e+01 2.495681e+01 
353 353 1.416030e+01 1.676496e+01 2.539416e+00 
354 354 1.852043e+01 1.450049e+01 4.649969e+00 
355 355 1.493888e+01 1.072542e+01 1.256976e+01 
356 356 1.748298e+01 1.165756e+01 1.434601e+01 
357 357 1.299934e+01 5.386039e+00 1.623665e+01 
358 358 1.813674e+01 1.284615e+01 1.804914e+01 
359 359 1.438000e+01 1.241021e+01 1.868214e+01 
360 360 1.780024e+01 1.387634e+01 1.667480e+00 
361 361 1.456078e+01 1.729234e+01 7.378504e+00 
362 362 1.465662e+01 1.420918e+01 8.218705e+00 
363 363 1.545883e+01 1.430576e+01 1.251548e+01 
364 364 1.521596e+01 1.977767e+01 1.469247e+01 
365 365 1.340193e+01 1.327229e+01 1.350742e+01 
366 366 1.920834e+01 1.667802e+01 1.645784e+01 
367 367 1.416751e+01 1.595455e+01 2.105422e+01 
368 368 1.532593e+01 1.535628e+01 2.339908e+01 
369 369 1.554221e+01 1.936548e+01 2.697000e+00 
370 370 1.491885e+01 2.030600e+01 7.553234e+00 
371 371 1.534498e+01 1.770620e+01 1.073387e+01 
372 372 1.817500e+01 1.944530e+01 1.513798e+01 
373 373 1.719802e+01 2.136140e+01 1.720261e+01 
374 374 1.569881e+01 1.661466e+01 1.686742e+01 
375 375 1.308389e+01 2.059277e+01 2.503224e+01 
376 376 1.713428e+01 2.016057e+01 1.892323e-01 
377 377 1.537183e+01 2.227632e+01 2.409488e+00 
378 378 1.732662e+01 1.868796e+01 6.656383e+00 
379 379 1.350950e+01 2.431549e+01 8.591809e+00 
380 380 1.692851e+01 2.164283e+01 1.441418e+01 
381 381 1.731462e+01 2.409186e+00 1.769955e+01 
382 382 1.413048e+01 2.360607e+01 1.923718e+01 
383 383 1.367569e+01 2.211869e+01 2.237974e+01 
384 384 2.052829e+01 1.892822e+00 1.928790e+00 
385 385 1.994487e+01 2.336698e+01 3.881497e+00 
386 386 2.047993e+01 1.167032e+00 1.054862e+01 
387 387 1.639090e+01 6.098755e-01 8.760599e+00 
388 388 1.713685e+01 2.452445e+01 1.157897e+01 
389 389 2.264899e+01 2.319298e+01 1.514683e+01 
390 390 2.204971e+01 2.521686e+00 1.710943e+01 
391 391 1.825062e+01 4.576377e-01 2.214893e+01 
392 392 1.727639e+01 3.112877e+00 2.417930e+01 
393 393 2.271228e+01 4.461664e+00 2.841565e+00 
394 394 1.946468e+01 1.924695e+00 6.481572e+00 
395 395 2.131444e+01 4.428829e+00 8.486584e+00 
396 396 2.173820e+01 2.459616e+01 1.227437e+01 
397 397 1.594749e+01 2.127709e+00 1.453112e+01 
398 398 2.146027e+01 1.902908e+00 2.230119e+01 
399 399 1.770584e+01 5.146699e+00 2.185414e+01 
400 400 1.843847e+01 7.419090e+00 2.005618e+01 
401 401 1.683682e+01 8.056245e+00 1.792896e+00 
402 402 2.390051e+01 1.893968e+00 5.571712e+00 
403 403 2.001019e+01 6.358708e+00 1.243888e+01 
404 404 2.131333e+01 8.981919e+00 1.355640e+01 
405 405 1.867932e+01 2.827685e+00 1.524003e+01 
406 406 1.573513e+01 6.536530e+00 1.963157e+01 
407 407 2.145048e+01 6.277568e+00 2.114822e+01 
408 408 1.957694e+01 6.706930e+00 1.021775e+00 
409 409 1.934205e+01 1.007761e+01 2.710969e+00 
410 410 2.173293e+01 6.709864e+00 2.963567e+00 
411 411 1.793633e+01 5.870416e+00 9.765809e+00 
412 412 2.100763e+01 1.102792e+01 1.214353e+01 
413 413 2.030280e+01 1.140538e+01 1.493329e+01 
414 414 2.033386e+01 1.138468e+01 1.865958e+01 
415 415 2.092046e+01 8.543844e+00 2.219722e+01 
416 416 1.582184e+01 1.153301e+01 2.038115e+01 
417 417 1.911125e+01 1.606195e+01 2.566108e+00 
418 418 2.051093e+01 1.137602e+01 4.893785e+00 
419 419 1.790618e+01 1.151149e+01 9.975867e+00 
420 420 1.616627e+01 1.428756e+01 1.589502e+01 
421 421 1.413092e+01 1.178629e+01 1.588655e+01 
422 422 2.056140e+01 1.502385e+01 1.782188e+01 
423 423 2.473424e+01 1.382813e+01 2.021626e+01 
424 424 1.932803e+01 1.333731e+01 2.276818e+01 
425 425 1.670655e+01 1.697353e+01 3.722468e+00 
426 426 1.798945e+01 1.276048e+01 7.675748e+00 
427 427 1.825920e+01 1.754650e+01 1.116661e+01 
428 428 2.177043e+01 1.677547e+01 9.757057e+00 
429 429 1.767692e+01 1.667941e+01 1.383595e+01 
430 430 1.925179e+01 1.600106e+01 2.124049e+01 
431 431 1.702008e+01 1.352722e+01 2.165371e+01 
432 432 2.000698e+01 1.877333e+01 2.339329e+01 
433 433 1.676693e+01 2.065636e+01 4.902368e+00 
434 434 1.847229e+01 1.632629e+01 7.692621e+00 
435 435 1.365044e+01 1.971975e+01 9.724579e+00 
436 436 1.947355e+01 1.916902e+01 1.278804e+01 
437 437 2.020883e+01 2.236930e+01 1.682083e+01 
438 438 1.921095e+01 1.802870e+01 1.904695e+01 
439 439 1.734128e+01 1.894578e+01 2.230792e+01 
440 440 2.072233e+01 2.377358e+01 2.303069e+01 
441 441 1.976823e+01 2.095785e+01 2.530806e+01 
442 442 1.876688e+01 2.294591e+01 1.056456e+01 
443 443 2.155700e+01 2.326887e+01 8.975817e+00 
444 444 1.971606e+01 2.191513e+01 1.325961e+01 
445 445 1.818870e+01 2.407029e+01 1.618946e+01 
446 446 2.097491e+01 6.354324e-01 1.964760e+01 
447 447 1.823518e+01 2.358178e+01 1.985271e+01 
448 448 2.399055e+01 2.288333e+01 2.494119e+01 
449 449 3.775264e-02 2.498754e+01 2.547077e+00 
450 450 2.528685e+01 2.392568e+01 5.979242e+00 
451 451 9.577015e-02 3.908495e-01 1.213995e+01 
452 452 2.176068e+01 2.159210e+01 1.205161e+01 
453 453 2.198139e+01 1.651307e+00 1.354217e+01 
454 454 2.458648e+01 1.352558e+00 1.724839e+01 
455 455 2.297424e+01 2.562302e+01 2.523403e+01 
456 456 2.311556e+01 1.396184e+00 1.417327e+00 
457 457 2.277946e+01 3.298460e-01 8.832315e+00 
458 458 2.450146e+01 8.681931e+00 6.771956e+00 
459 459 2.172660e+01 4.044118e+00 1.109477e+01 
460 460 2.309821e+01 1.127687e+00 1.141380e+01 
461 461 2.554387e+01 6.434258e+00 1.753681e+01 
462 462 2.292874e+01 5.984451e+00 1.663917e+01 
463 463 1.002392e+00 1.959730e+00 2.205671e+01 
464 464 2.072122e+01 6.601671e+00 2.408385e+01 
465 465 1.302868e-02 8.220355e+00 6.846160e-01 
466 466 2.427737e+00 5.009078e+00 3.266023e+00 
467 467 2.257794e+01 5.271013e+00 1.338494e+01 
468 468 2.435783e+01 3.960605e+00 1.250861e+01 
469 469 1.758831e+01 5.045436e+00 1.397345e+01 
470 470 2.204218e+01 4.308303e+00 1.923314e+01 
471 471 2.441365e+01 4.020524e+00 2.025262e+01 
472 472 2.007418e+01 9.712252e+00 2.445945e+01 
473 473 2.172298e+01 1.136962e+01 8.838574e-01 
474 474 2.126533e+01 7.117034e+00 1.059425e+01 
475 475 2.225464e+01 1.174757e+01 9.865437e+00 
476 476 2.458941e+01 6.721781e+00 1.434226e+01 
477 477 2.129990e+01 9.234094e+00 1.656186e+01 
478 478 2.155894e+01 7.278452e+00 1.846039e+01 
479 479 2.379704e+01 6.539435e+00 1.991245e+01 
480 480 2.246283e+01 1.314171e+01 2.398672e+01 
481 481 2.260202e+01 1.735416e+01 3.240552e-01 
482 482 2.191274e+01 8.746149e+00 4.489988e+00 
483 483 1.925209e+01 9.550175e+00 7.117059e+00 
484 484 2.091708e+01 1.413181e+01 1.016761e+01 
485 485 1.964916e+01 1.358110e+01 1.216285e+01 
486 486 2.010148e+01 1.410048e+01 1.535730e+01 
487 487 2.460347e+01 1.120650e+01 2.130875e+01 
488 488 2.103424e+01 2.016328e+01 1.709698e+00 
489 489 2.053596e+01 1.316210e+01 3.162966e+00 
490 490 2.037109e+01 1.432535e+01 7.446809e+00 
491 491 2.058318e+01 1.851166e+01 6.925768e+00 
492 492 9.200590e-01 1.552045e+01 1.043547e+01 
493 493 2.160370e+01 1.678640e+01 1.324492e+01 
494 494 2.200126e+01 1.600444e+01 1.575705e+01 
495 495 1.879168e+01 1.880819e+01 1.417333e+00 
496 496 2.481729e+01 2.224606e+01 2.938524e+00 
497 497 2.320684e+01 1.821305e+01 4.302223e+00 
498 498 2.035656e+01 2.156542e+01 7.270081e+00 
499 499 2.366031e+01 2.059749e+01 6.821185e+00 
500 500 2.182401e+01 1.869161e+01 1.183467e+01 
501 501 2.414477e+01 1.798781e+01 1.762411e+01 
502 502 2.334789e+01 1.596715e+01 2.108105e+01 
503 503 2.218303e+01 2.002485e+01 2.106060e+01 
504 504 2.555389e+01 2.154696e+01 2.289377e+01 
505 505 2.184265e+01 2.073584e+01 4.651518e+00 
506 506 2.192197e+01 2.303379e+01 5.709500e+00 
507 507 2.447868e+01 2.324810e+01 8.246800e+00 
508 508 2.428172e+01 2.224675e+01 1.815408e+01 
509 509 2.011106e+01 2.550028e+01 1.748568e+01 
510 510 2.333594e+01 2.489998e+01 1.763634e+01 
511 511 2.249368e+01 2.367393e+01 2.035355e+01 
ITEM: TIMESTEP 
2100 
ITEM: NUMBER OF ATOMS 
512 
ITEM: BOX BOUNDS 
0.000000e+00 2.570239e+01 xlo xhi 
0.000000e+00 2.570239e+01 xlo xhi 
0.000000e+00 2.570239e+01 xlo xhi 
ITEM: ATOMS id type x y z 
0 0 6.414668e-01 2.546527e+01 9.372044e-02 
1 1 1.604499e+00 2.221440e+01 5.693389e+00 
2 2 2.327081e+00 2.563097e+01 5.431255e+00 
3 3 2.266156e+00 2.332424e+01 9.379094e+00 
4 4 2.407169e+01 2.368602e+01 1.064486e+01 
5 5 2.547020e+01 2.005453e+00 1.506500e+01 
6 6 3.815012e+00 2.527820e+01 1.822906e+01 
7 7 2.516874e+01 2.505976e+01 2.320713e+01 
8 8 2.570234e+01 1.839235e+00 2.586942e+00 
9 9 1.435423e+00 2.661304e+00 5.191391e+00 
10 10 1.734676e+00 1.966761e+00 7.813443e+00 
11 11 1.308762e+00 2.173115e+00 1.034981e+01 
12 12 2.764331e+00 1.960136e+00 1.281964e+01 
13 13 2.226325e+00 1.360447e+00 1.694205e+01 
14 14 5.482151e+00 2.903298e-01 2.327785e+01 
15 15 2.243376e+01 2.456469e+00 2.478597e+01 
16 16 2.345774e+01 6.692884e+00 9.527635e-01 
17 17 1.841363e+00 5.635293e+00 6.634278e-01 
18 18 3.380159e+00 7.116459e+00 1.040518e+01 
19 19 2.489935e+01 8.939466e+00 1.333956e+01 
20 20 1.242902e+00 5.716507e+00 1.303465e+01 
21 21 1.438643e+00 4.389062e+00 1.554734e+01 
22 22 1.847889e+00 3.410461e+00 1.911408e+01 
23 23 2.403285e+01 7.711583e+00 2.235483e+01 
24 24 2.450448e+01 1.032597e+01 2.227266e+00 
25 25 6.324240e-02 7.624896e+00 3.993788e+00 
26 26 7.631018e-01 1.110224e+01 7.093583e+00 
27 27 2.408402e+01 9.020823e+00 9.745041e+00 
28 28 4.458809e+00 8.273020e+00 1.485817e+01 
29 29 7.620829e-01 9.042325e+00 1.528984e+01 
30 30 2.252058e+01 1.032115e+01 1.889661e+01 
31 31 2.286687e+01 1.025532e+01 2.367285e+01 
32 32 3.310408e-01 1.156564e+01 4.974470e-01 
33 33 2.101100e+01 1.434143e+01 2.687008e-01 
34 34 2.377039e+00 1.547279e+01 3.120805e+00 
35 35 2.513681e+01 1.276629e+01 1.120619e+01 
36 36 2.305481e+01 1.176571e+01 1.357816e+01 
37 37 2.308926e+01 1.537268e+01 1.134805e+01 
38 38 2.374156e+01 8.920117e+00 1.692156e+01 
39 39 7.231108e-01 1.542209e+01 2.060106e+01 
40 40 3.300244e+00 1.211042e+01 2.376002e+01 
41 41 2.350865e+01 1.379983e+01 2.160215e+00 
42 42 2.134714e+01 1.540916e+01 4.697273e+00 
43 43 2.265348e+01 1.058312e+01 7.005634e+00 
44 44 2.432260e+01 1.750915e+01 1.144471e+01 
45 45 2.464689e+01 1.540554e+01 1.494465e+01 
46 46 2.515698e+01 1.750563e+01 2.039297e+01 
47 47 2.406014e+01 1.801190e+01 2.321876e+01 
48 48 2.316563e+01 1.984562e+01 2.163444e-01 
49 49 6.474308e-01 1.741755e+01 3.076432e+00 
50 50 8.425962e-01 1.724403e+01 5.857626e+00 
51 51 2.406109e+01 2.120297e+01 1.101884e+01 
52 52 8.657226e-01 1.807374e+01 1.459199e+01 
53 53 2.410667e+01 1.823315e+01 1.394629e+01 
54 54 7.310356e-01 1.956549e+01 1.975182e+01 
55 55 6.559146e-01 1.660398e+01 2.521183e+01 
56 56 6.716934e-01 2.187279e+01 2.559501e+01 
57 57 2.519641e+01 1.967137e+01 2.874273e+00 
58 58 2.527821e+01 1.890643e+01 8.685475e+00 
59 59 2.808535e-01 2.056187e+01 1.267161e+01 
60 60 2.513752e+01 2.408800e+01 1.617005e+01 
61 61 3.853406e-01 2.058189e+01 1.595951e+01 
62 62 2.377080e+01 1.706118e+00 2.036467e+01 
63 63 5.187875e-01 2.389544e+01 2.096776e+01 
64 64 5.754388e+00 2.174760e-01 2.055798e+00 
65 65 2.889478e+00 1.224748e+00 2.426037e+00 
66 66 4.450807e+00 1.554069e+00 6.868151e+00 
67 67 4.764386e+00 2.323327e+01 9.038501e+00 
68 68 2.955321e+00 2.336725e+01 1.182079e+01 
69 69 4.506398e+00 1.949678e+00 1.508641e+01 
70 70 3.931769e+00 1.865072e+00 1.948762e+01 
71 71 4.504793e+00 2.414694e+01 2.516864e+01 
72 72 8.852664e+00 4.562035e+00 2.663740e+00 
73 73 6.273498e+00 4.205558e+00 1.095476e+00 
74 74 4.674735e+00 7.086972e+00 5.222860e+00 
75 75 2.351024e+00 6.545810e+00 7.984540e+00 
76 76 4.084951e+00 4.509820e+00 1.420712e+01 
77 77 4.918816e+00 3.319998e+00 1.727260e+01 
78 78 4.030804e+00 2.678761e+00 2.225273e+01 
79 79 7.261917e-01 7.229244e+00 2.337220e+01 
80 80 7.476285e+00 6.943150e+00 3.865380e+00 
81 81 5.183157e+00 7.021950e+00 1.096017e+00 
82 82 6.716606e+00 1.063845e+01 5.999578e+00 
83 83 1.315101e+00 5.105871e+00 9.956685e+00 
84 84 5.434440e+00 6.249182e+00 1.233668e+01 
85 85 2.625148e+00 7.383911e+00 1.860265e+01 
86 86 4.117752e+00 1.059698e+01 1.758017e+01 
87 87 1.887446e+00 8.958920e+00 2.085074e+01 
88 88 2.422041e+00 7.909970e+00 3.496325e+00 
89 89 4.338425e+00 1.051807e+01 4.971674e+00 
90 90 2.562314e+00 1.260584e+01 5.317431e+00 
91 91 1.930711e+00 1.120849e+01 1.433002e+01 
92 92 4.433036e+00 1.040102e+01 1.271934e+01 
93 93 2.390591e+01 1.348907e+01 1.744059e+01 
94 94 2.563433e+01 8.726798e+00 1.900473e+01 
95 95 2.979079e+00 1.031230e+01 1.471561e+00 
96 96 1.411986e+00 1.145639e+01 3.142541e+00 
97 97 2.685105e+00 1.357788e+01 1.762814e+00 
98 98 4.246093e+00 1.721434e+01 5.594934e+00 
99 99 9.003081e+00 1.538834e+01 1.444070e+01 
100 100 2.123267e+00 1.267931e+01 1.154999e+01 
101 101 7.092389e+00 1.314424e+01 1.498671e+01 
102 102 1.478895e+00 1.279153e+01 1.663435e+01 
103 103 1.449816e+00 1.286095e+01 2.162151e+01 
104 104 2.754712e+00 1.962162e+01 2.495330e+01 
105 105 3.737349e+00 1.650321e+01 1.120886e+00 
106 106 6.265025e+00 1.602027e+01 7.479192e+00 
107 107 2.440460e+01 1.241404e+01 7.919296e+00 
108 108 3.932320e+00 1.887736e+01 1.578325e+01 
109 109 6.981493e-01 1.550831e+01 1.695316e+01 
110 110 8.669202e-01 1.868864e+01 2.258268e+01 
111 111 1.081078e+00 1.392698e+01 2.413840e+01 
112 112 3.437311e+00 2.135689e+01 1.453831e+00 