ITEM: TIMESTEP 
0 
ITEM: NUMBER OF ATOMS 
512 
ITEM: BOX BOUNDS 
0.000000e+00 2.570239e+01 xlo xhi 
0.000000e+00 2.570239e+01 xlo xhi 
0.000000e+00 2.570239e+01 xlo xhi 
ITEM: ATOMS id type x y z 
0 0 2.570055e+01 2.570041e+01 2.570046e+01 
1 1 2.130497e-03 2.570041e+01 3.210870e+00 
2 2 2.130497e-03 1.991047e-03 6.423668e+00 
3 3 2.130497e-03 1.991047e-03 9.636467e+00 
4 4 2.570055e+01 2.570041e+01 1.285323e+01 
5 5 2.130497e-03 2.570041e+01 1.606206e+01 
6 6 2.130497e-03 2.570041e+01 1.927486e+01 
7 7 2.570055e+01 2.570041e+01 2.249163e+01 
8 8 2.130497e-03 3.210823e+00 2.037530e-03 
9 9 2.130497e-03 3.214790e+00 3.214836e+00 
10 10 2.130497e-03 3.214790e+00 6.427635e+00 
11 11 2.130497e-03 3.210823e+00 9.636467e+00 
12 12 2.570055e+01 3.210823e+00 1.285323e+01 
13 13 2.130497e-03 3.214790e+00 1.606206e+01 
14 14 2.130497e-03 3.210823e+00 1.927883e+01 
15 15 2.570055e+01 3.210823e+00 2.249163e+01 
16 16 2.570055e+01 6.423622e+00 2.037530e-03 
17 17 2.130497e-03 6.423622e+00 3.210870e+00 
18 18 2.130497e-03 6.423622e+00 6.427635e+00 
19 19 2.570055e+01 6.427588e+00 9.640434e+00 
20 20 2.130497e-03 6.427588e+00 1.284927e+01 
21 21 2.130497e-03 6.423622e+00 1.606603e+01 
22 22 2.130497e-03 6.423622e+00 1.927486e+01 
23 23 2.570055e+01 6.427588e+00 2.248766e+01 
24 24 2.570055e+01 9.640387e+00 2.037530e-03 
25 25 2.570055e+01 9.640387e+00 3.214836e+00 
26 26 2.130497e-03 9.636420e+00 6.423668e+00 
27 27 2.570055e+01 9.636420e+00 9.636467e+00 
28 28 2.130497e-03 9.636420e+00 1.285323e+01 
29 29 2.570055e+01 9.636420e+00 1.606603e+01 
30 30 2.570055e+01 9.636420e+00 1.927486e+01 
31 31 2.570055e+01 9.640387e+00 2.249163e+01 
32 32 2.570055e+01 1.284922e+01 2.570046e+01 
33 33 2.570055e+01 1.284922e+01 3.214836e+00 
34 34 2.570055e+01 1.285319e+01 6.423668e+00 
35 35 2.570055e+01 1.284922e+01 9.640434e+00 
36 36 2.570055e+01 1.284922e+01 1.285323e+01 
37 37 2.570055e+01 1.285319e+01 1.606206e+01 
38 38 2.130497e-03 1.284922e+01 1.927486e+01 
39 39 2.570055e+01 1.284922e+01 2.249163e+01 
40 40 2.130497e-03 1.606202e+01 2.570046e+01 
41 41 2.570055e+01 1.606598e+01 3.210870e+00 
42 42 2.570055e+01 1.606202e+01 6.427635e+00 
43 43 2.570055e+01 1.606202e+01 9.636467e+00 
44 44 2.570055e+01 1.606598e+01 1.285323e+01 
45 45 2.570055e+01 1.606598e+01 1.606206e+01 
46 46 2.570055e+01 1.606202e+01 1.927883e+01 
47 47 2.570055e+01 1.606598e+01 2.249163e+01 
48 48 2.570055e+01 1.927482e+01 2.570046e+01 
49 49 2.570055e+01 1.927878e+01 3.210870e+00 
50 50 2.130497e-03 1.927482e+01 6.423668e+00 
51 51 2.570055e+01 1.927878e+01 9.640434e+00 
52 52 2.130497e-03 1.927878e+01 1.285323e+01 
53 53 2.570055e+01 1.927878e+01 1.606206e+01 
54 54 2.570055e+01 1.927482e+01 1.927486e+01 
55 55 2.130497e-03 1.927878e+01 2.249163e+01 
56 56 2.130497e-03 2.248762e+01 2.037530e-03 
57 57 2.130497e-03 2.248762e+01 3.210870e+00 
58 58 2.570055e+01 2.248762e+01 6.427635e+00 
59 59 2.130497e-03 2.248762e+01 9.640434e+00 
60 60 2.570055e+01 2.248762e+01 1.285323e+01 
61 61 2.130497e-03 2.248762e+01 1.606603e+01 
62 62 2.130497e-03 2.249158e+01 1.927883e+01 
63 63 2.570055e+01 2.248762e+01 2.248766e+01 
64 64 3.214929e+00 1.991047e-03 2.037530e-03 
65 65 3.210963e+00 1.991047e-03 3.210870e+00 
66 66 3.210963e+00 1.991047e-03 6.427635e+00 
67 67 3.214929e+00 1.991047e-03 9.636467e+00 
68 68 3.214929e+00 2.570041e+01 1.284927e+01 
69 69 3.214929e+00 1.991047e-03 1.606603e+01 
70 70 3.214929e+00 2.570041e+01 1.927486e+01 
71 71 3.214929e+00 2.570041e+01 2.249163e+01 
72 72 3.214929e+00 3.214790e+00 2.037530e-03 
73 73 3.214929e+00 3.210823e+00 3.214836e+00 
74 74 3.210963e+00 3.214790e+00 6.423668e+00 
75 75 3.210963e+00 3.210823e+00 9.636467e+00 
76 76 3.210963e+00 3.214790e+00 1.285323e+01 
77 77 3.210963e+00 3.214790e+00 1.606603e+01 
78 78 3.210963e+00 3.214790e+00 1.927486e+01 
79 79 3.210963e+00 3.214790e+00 2.248766e+01 
80 80 3.214929e+00 6.427588e+00 2.037530e-03 
81 81 3.210963e+00 6.427588e+00 3.214836e+00 
82 82 3.214929e+00 6.427588e+00 6.423668e+00 
83 83 3.210963e+00 6.423622e+00 9.640434e+00 
84 84 3.214929e+00 6.423622e+00 1.284927e+01 
85 85 3.214929e+00 6.423622e+00 1.606206e+01 
86 86 3.210963e+00 6.423622e+00 1.927486e+01 
87 87 3.214929e+00 6.427588e+00 2.248766e+01 
88 88 3.210963e+00 9.636420e+00 2.037530e-03 
89 89 3.214929e+00 9.636420e+00 3.214836e+00 
90 90 3.214929e+00 9.640387e+00 6.423668e+00 
91 91 3.210963e+00 9.640387e+00 9.640434e+00 
92 92 3.210963e+00 9.636420e+00 1.285323e+01 
93 93 3.210963e+00 9.640387e+00 1.606603e+01 
94 94 3.210963e+00 9.640387e+00 1.927486e+01 
95 95 3.210963e+00 9.640387e+00 2.249163e+01 
96 96 3.210963e+00 1.284922e+01 2.037530e-03 
97 97 3.214929e+00 1.285319e+01 3.214836e+00 
98 98 3.214929e+00 1.285319e+01 6.423668e+00 
99 99 3.214929e+00 1.285319e+01 9.640434e+00 
100 100 3.210963e+00 1.285319e+01 1.285323e+01 
101 101 3.214929e+00 1.284922e+01 1.606206e+01 
102 102 3.210963e+00 1.284922e+01 1.927883e+01 
103 103 3.210963e+00 1.284922e+01 2.248766e+01 
104 104 3.214929e+00 1.606598e+01 2.037530e-03 
105 105 3.214929e+00 1.606598e+01 3.210870e+00 
106 106 3.214929e+00 1.606598e+01 6.423668e+00 
107 107 3.210963e+00 1.606598e+01 9.636467e+00 
108 108 3.214929e+00 1.606598e+01 1.285323e+01 
109 109 3.210963e+00 1.606202e+01 1.606206e+01 
110 110 3.210963e+00 1.606598e+01 1.927883e+01 
111 111 3.210963e+00 1.606598e+01 2.249163e+01 
112 112 3.214929e+00 1.927878e+01 2.570046e+01 
113 113 3.214929e+00 1.927482e+01 3.210870e+00 
114 114 3.210963e+00 1.927482e+01 6.427635e+00 
115 115 3.210963e+00 1.927482e+01 9.640434e+00 
116 116 3.210963e+00 1.927878e+01 1.285323e+01 
117 117 3.210963e+00 1.927878e+01 1.606603e+01 
118 118 3.214929e+00 1.927878e+01 1.927883e+01 
119 119 3.210963e+00 1.927878e+01 2.248766e+01 
120 120 3.210963e+00 2.249158e+01 2.570046e+01 
121 121 3.210963e+00 2.248762e+01 3.214836e+00 
122 122 3.214929e+00 2.249158e+01 6.423668e+00 
123 123 3.214929e+00 2.248762e+01 9.636467e+00 
124 124 3.210963e+00 2.249158e+01 1.285323e+01 
125 125 3.210963e+00 2.249158e+01 1.606603e+01 
126 126 3.210963e+00 2.249158e+01 1.927883e+01 
127 127 3.210963e+00 2.249158e+01 2.249163e+01 
128 128 6.427728e+00 1.991047e-03 2.570046e+01 
129 129 6.423761e+00 2.570041e+01 3.214836e+00 
130 130 6.423761e+00 1.991047e-03 6.427635e+00 
131 131 6.427728e+00 1.991047e-03 9.640434e+00 
132 132 6.423761e+00 1.991047e-03 1.284927e+01 
133 133 6.427728e+00 1.991047e-03 1.606206e+01 
134 134 6.423761e+00 1.991047e-03 1.927486e+01 
135 135 6.427728e+00 1.991047e-03 2.249163e+01 
136 136 6.427728e+00 3.210823e+00 2.570046e+01 
137 137 6.423761e+00 3.210823e+00 3.214836e+00 
138 138 6.423761e+00 3.214790e+00 6.427635e+00 
139 139 6.423761e+00 3.214790e+00 9.636467e+00 
140 140 6.427728e+00 3.210823e+00 1.285323e+01 
141 141 6.423761e+00 3.210823e+00 1.606206e+01 
142 142 6.423761e+00 3.214790e+00 1.927883e+01 
143 143 6.423761e+00 3.210823e+00 2.249163e+01 
144 144 6.427728e+00 6.427588e+00 2.037530e-03 
145 145 6.427728e+00 6.423622e+00 3.210870e+00 
146 146 6.427728e+00 6.427588e+00 6.427635e+00 
147 147 6.423761e+00 6.423622e+00 9.640434e+00 
148 148 6.423761e+00 6.427588e+00 1.284927e+01 
149 149 6.423761e+00 6.423622e+00 1.606206e+01 
150 150 6.427728e+00 6.423622e+00 1.927486e+01 
151 151 6.427728e+00 6.427588e+00 2.249163e+01 
152 152 6.423761e+00 9.640387e+00 2.570046e+01 
153 153 6.427728e+00 9.636420e+00 3.210870e+00 
154 154 6.423761e+00 9.640387e+00 6.427635e+00 
155 155 6.423761e+00 9.640387e+00 9.640434e+00 
156 156 6.427728e+00 9.636420e+00 1.285323e+01 
157 157 6.427728e+00 9.640387e+00 1.606603e+01 
158 158 6.423761e+00 9.640387e+00 1.927486e+01 
159 159 6.427728e+00 9.640387e+00 2.248766e+01 
160 160 6.427728e+00 1.284922e+01 2.570046e+01 
161 161 6.423761e+00 1.284922e+01 3.210870e+00 
162 162 6.423761e+00 1.285319e+01 6.427635e+00 
163 163 6.427728e+00 1.284922e+01 9.640434e+00 
164 164 6.427728e+00 1.284922e+01 1.284927e+01 
165 165 6.427728e+00 1.285319e+01 1.606603e+01 
166 166 6.423761e+00 1.285319e+01 1.927883e+01 
167 167 6.423761e+00 1.285319e+01 2.248766e+01 
168 168 6.423761e+00 1.606598e+01 2.037530e-03 
169 169 6.427728e+00 1.606202e+01 3.214836e+00 
170 170 6.427728e+00 1.606202e+01 6.423668e+00 
171 171 6.423761e+00 1.606598e+01 9.640434e+00 
172 172 6.423761e+00 1.606598e+01 1.284927e+01 
173 173 6.423761e+00 1.606202e+01 1.606603e+01 
174 174 6.423761e+00 1.606598e+01 1.927486e+01 
175 175 6.423761e+00 1.606202e+01 2.249163e+01 
176 176 6.427728e+00 1.927482e+01 2.570046e+01 
177 177 6.423761e+00 1.927482e+01 3.210870e+00 
178 178 6.423761e+00 1.927878e+01 6.423668e+00 
179 179 6.427728e+00 1.927878e+01 9.636467e+00 
180 180 6.423761e+00 1.927878e+01 1.284927e+01 
181 181 6.423761e+00 1.927878e+01 1.606603e+01 
182 182 6.427728e+00 1.927878e+01 1.927883e+01 
183 183 6.423761e+00 1.927878e+01 2.248766e+01 
184 184 6.427728e+00 2.248762e+01 2.037530e-03 
185 185 6.423761e+00 2.248762e+01 3.210870e+00 
186 186 6.427728e+00 2.248762e+01 6.423668e+00 
187 187 6.423761e+00 2.248762e+01 9.636467e+00 
188 188 6.427728e+00 2.248762e+01 1.284927e+01 
189 189 6.423761e+00 2.248762e+01 1.606206e+01 
190 190 6.423761e+00 2.249158e+01 1.927883e+01 
191 191 6.427728e+00 2.248762e+01 2.249163e+01 
192 192 9.640527e+00 1.991047e-03 2.570046e+01 
193 193 9.636560e+00 1.991047e-03 3.214836e+00 
194 194 9.636560e+00 1.991047e-03 6.423668e+00 
195 195 9.636560e+00 2.570041e+01 9.640434e+00 
196 196 9.640527e+00 1.991047e-03 1.285323e+01 
197 197 9.636560e+00 2.570041e+01 1.606206e+01 
198 198 9.640527e+00 2.570041e+01 1.927486e+01 
199 199 9.636560e+00 1.991047e-03 2.249163e+01 
200 200 9.636560e+00 3.210823e+00 2.037530e-03 
201 201 9.640527e+00 3.210823e+00 3.210870e+00 
202 202 9.636560e+00 3.210823e+00 6.423668e+00 
203 203 9.636560e+00 3.210823e+00 9.640434e+00 
204 204 9.636560e+00 3.214790e+00 1.284927e+01 
205 205 9.636560e+00 3.214790e+00 1.606603e+01 
206 206 9.636560e+00 3.210823e+00 1.927486e+01 
207 207 9.636560e+00 3.214790e+00 2.249163e+01 
208 208 9.640527e+00 6.427588e+00 2.570046e+01 
209 209 9.640527e+00 6.423622e+00 3.214836e+00 
210 210 9.640527e+00 6.427588e+00 6.427635e+00 
211 211 9.640527e+00 6.423622e+00 9.640434e+00 
212 212 9.636560e+00 6.427588e+00 1.284927e+01 
213 213 9.636560e+00 6.427588e+00 1.606603e+01 
214 214 9.636560e+00 6.423622e+00 1.927883e+01 
215 215 9.640527e+00 6.427588e+00 2.248766e+01 
216 216 9.640527e+00 9.636420e+00 2.037530e-03 
217 217 9.636560e+00 9.640387e+00 3.210870e+00 
218 218 9.640527e+00 9.636420e+00 6.427635e+00 
219 219 9.640527e+00 9.636420e+00 9.640434e+00 
220 220 9.636560e+00 9.636420e+00 1.284927e+01 
221 221 9.640527e+00 9.640387e+00 1.606603e+01 
222 222 9.636560e+00 9.636420e+00 1.927883e+01 
223 223 9.636560e+00 9.636420e+00 2.249163e+01 
224 224 9.640527e+00 1.285319e+01 2.037530e-03 
225 225 9.636560e+00 1.285319e+01 3.214836e+00 
226 226 9.640527e+00 1.285319e+01 6.423668e+00 
227 227 9.636560e+00 1.285319e+01 9.640434e+00 
228 228 9.636560e+00 1.285319e+01 1.284927e+01 
229 229 9.640527e+00 1.284922e+01 1.606206e+01 
230 230 9.640527e+00 1.284922e+01 1.927486e+01 
231 231 9.636560e+00 1.284922e+01 2.248766e+01 
232 232 9.636560e+00 1.606202e+01 2.570046e+01 
233 233 9.640527e+00 1.606598e+01 3.214836e+00 
234 234 9.640527e+00 1.606202e+01 6.427635e+00 
235 235 9.636560e+00 1.606202e+01 9.636467e+00 
236 236 9.640527e+00 1.606598e+01 1.284927e+01 
237 237 9.640527e+00 1.606202e+01 1.606603e+01 
238 238 9.636560e+00 1.606202e+01 1.927883e+01 
239 239 9.636560e+00 1.606202e+01 2.249163e+01 
240 240 9.636560e+00 1.927482e+01 2.570046e+01 
241 241 9.636560e+00 1.927482e+01 3.214836e+00 
242 242 9.636560e+00 1.927878e+01 6.423668e+00 
243 243 9.640527e+00 1.927878e+01 9.636467e+00 
244 244 9.640527e+00 1.927878e+01 1.284927e+01 
245 245 9.636560e+00 1.927878e+01 1.606603e+01 
246 246 9.636560e+00 1.927878e+01 1.927883e+01 
247 247 9.640527e+00 1.927482e+01 2.249163e+01 
248 248 9.640527e+00 2.248762e+01 2.570046e+01 
249 249 9.636560e+00 2.248762e+01 3.210870e+00 
250 250 9.640527e+00 2.248762e+01 6.423668e+00 
251 251 9.636560e+00 2.249158e+01 9.636467e+00 
252 252 9.640527e+00 2.248762e+01 1.285323e+01 
253 253 9.640527e+00 2.249158e+01 1.606603e+01 
254 254 9.636560e+00 2.249158e+01 1.927883e+01 
255 255 9.636560e+00 2.248762e+01 2.249163e+01 
256 256 1.284936e+01 2.570041e+01 2.570046e+01 
257 257 1.285333e+01 1.991047e-03 3.214836e+00 
258 258 1.285333e+01 2.570041e+01 6.427635e+00 
259 259 1.284936e+01 2.570041e+01 9.636467e+00 
260 260 1.285333e+01 2.570041e+01 1.284927e+01 
261 261 1.284936e+01 2.570041e+01 1.606603e+01 
262 262 1.285333e+01 2.570041e+01 1.927486e+01 
263 263 1.285333e+01 1.991047e-03 2.248766e+01 
264 264 1.284936e+01 3.210823e+00 2.570046e+01 
265 265 1.284936e+01 3.210823e+00 3.214836e+00 
266 266 1.284936e+01 3.214790e+00 6.427635e+00 
267 267 1.285333e+01 3.214790e+00 9.640434e+00 
268 268 1.285333e+01 3.214790e+00 1.284927e+01 
269 269 1.285333e+01 3.214790e+00 1.606206e+01 
270 270 1.284936e+01 3.210823e+00 1.927883e+01 
271 271 1.285333e+01 3.214790e+00 2.248766e+01 
272 272 1.285333e+01 6.423622e+00 2.570046e+01 
273 273 1.284936e+01 6.427588e+00 3.210870e+00 
274 274 1.284936e+01 6.423622e+00 6.427635e+00 
275 275 1.284936e+01 6.427588e+00 9.640434e+00 
276 276 1.284936e+01 6.427588e+00 1.284927e+01 
277 277 1.285333e+01 6.427588e+00 1.606206e+01 
278 278 1.284936e+01 6.427588e+00 1.927486e+01 
279 279 1.284936e+01 6.423622e+00 2.249163e+01 
280 280 1.284936e+01 9.636420e+00 2.037530e-03 
281 281 1.285333e+01 9.640387e+00 3.210870e+00 
282 282 1.285333e+01 9.636420e+00 6.423668e+00 
283 283 1.285333e+01 9.640387e+00 9.636467e+00 
284 284 1.285333e+01 9.636420e+00 1.284927e+01 
285 285 1.284936e+01 9.640387e+00 1.606206e+01 
286 286 1.284936e+01 9.640387e+00 1.927486e+01 
287 287 1.285333e+01 9.640387e+00 2.248766e+01 
288 288 1.285333e+01 1.284922e+01 2.570046e+01 
289 289 1.284936e+01 1.284922e+01 3.214836e+00 
290 290 1.285333e+01 1.285319e+01 6.423668e+00 
291 291 1.285333e+01 1.284922e+01 9.636467e+00 
292 292 1.285333e+01 1.284922e+01 1.285323e+01 
293 293 1.284936e+01 1.284922e+01 1.606206e+01 
294 294 1.285333e+01 1.285319e+01 1.927883e+01 
295 295 1.285333e+01 1.284922e+01 2.248766e+01 
296 296 1.284936e+01 1.606598e+01 2.570046e+01 
297 297 1.284936e+01 1.606598e+01 3.214836e+00 
298 298 1.284936e+01 1.606598e+01 6.423668e+00 
299 299 1.284936e+01 1.606598e+01 9.636467e+00 
300 300 1.285333e+01 1.606202e+01 1.284927e+01 
301 301 1.284936e+01 1.606598e+01 1.606603e+01 
302 302 1.284936e+01 1.606598e+01 1.927486e+01 
303 303 1.285333e+01 1.606598e+01 2.249163e+01 
304 304 1.284936e+01 1.927482e+01 2.037530e-03 
305 305 1.284936e+01 1.927878e+01 3.214836e+00 
306 306 1.284936e+01 1.927482e+01 6.427635e+00 
307 307 1.284936e+01 1.927482e+01 9.640434e+00 
308 308 1.284936e+01 1.927878e+01 1.285323e+01 
309 309 1.284936e+01 1.927878e+01 1.606603e+01 
310 310 1.285333e+01 1.927878e+01 1.927883e+01 
311 311 1.284936e+01 1.927878e+01 2.248766e+01 
312 312 1.284936e+01 2.248762e+01 2.570046e+01 
313 313 1.285333e+01 2.248762e+01 3.214836e+00 
314 314 1.284936e+01 2.248762e+01 6.423668e+00 
315 315 1.284936e+01 2.249158e+01 9.640434e+00 
316 316 1.284936e+01 2.249158e+01 1.284927e+01 
317 317 1.285333e+01 2.249158e+01 1.606206e+01 
318 318 1.284936e+01 2.248762e+01 1.927486e+01 
319 319 1.284936e+01 2.248762e+01 2.249163e+01 
320 320 1.606612e+01 2.570041e+01 2.570046e+01 
321 321 1.606612e+01 2.570041e+01 3.214836e+00 
322 322 1.606612e+01 2.570041e+01 6.423668e+00 
323 323 1.606612e+01 2.570041e+01 9.636467e+00 
324 324 1.606612e+01 2.570041e+01 1.285323e+01 
325 325 1.606612e+01 2.570041e+01 1.606206e+01 
326 326 1.606612e+01 1.991047e-03 1.927883e+01 
327 327 1.606612e+01 1.991047e-03 2.248766e+01 
328 328 1.606612e+01 3.210823e+00 2.037530e-03 
329 329 1.606612e+01 3.210823e+00 3.214836e+00 
330 330 1.606216e+01 3.214790e+00 6.427635e+00 
331 331 1.606216e+01 3.214790e+00 9.640434e+00 
332 332 1.606216e+01 3.210823e+00 1.284927e+01 
333 333 1.606216e+01 3.214790e+00 1.606603e+01 
334 334 1.606216e+01 3.210823e+00 1.927883e+01 
335 335 1.606216e+01 3.214790e+00 2.248766e+01 
336 336 1.606612e+01 6.427588e+00 2.037530e-03 
337 337 1.606216e+01 6.423622e+00 3.210870e+00 
338 338 1.606612e+01 6.427588e+00 6.423668e+00 
339 339 1.606612e+01 6.423622e+00 9.636467e+00 
340 340 1.606216e+01 6.423622e+00 1.285323e+01 
341 341 1.606216e+01 6.427588e+00 1.606603e+01 
342 342 1.606216e+01 6.427588e+00 1.927883e+01 
343 343 1.606216e+01 6.427588e+00 2.249163e+01 
344 344 1.606612e+01 9.636420e+00 2.570046e+01 
345 345 1.606612e+01 9.636420e+00 3.210870e+00 
346 346 1.606612e+01 9.636420e+00 6.423668e+00 
347 347 1.606612e+01 9.640387e+00 9.636467e+00 
348 348 1.606612e+01 9.636420e+00 1.285323e+01 
349 349 1.606612e+01 9.636420e+00 1.606603e+01 
350 350 1.606216e+01 9.636420e+00 1.927486e+01 
351 351 1.606612e+01 9.640387e+00 2.248766e+01 
352 352 1.606216e+01 1.284922e+01 2.570046e+01 
353 353 1.606612e+01 1.285319e+01 3.214836e+00 
354 354 1.606612e+01 1.285319e+01 6.423668e+00 
355 355 1.606612e+01 1.284922e+01 9.640434e+00 
356 356 1.606612e+01 1.284922e+01 1.285323e+01 
357 357 1.606216e+01 1.284922e+01 1.606206e+01 
358 358 1.606612e+01 1.284922e+01 1.927883e+01 
359 359 1.606216e+01 1.284922e+01 2.248766e+01 
360 360 1.606612e+01 1.606202e+01 2.570046e+01 
361 361 1.606612e+01 1.606202e+01 3.214836e+00 
362 362 1.606216e+01 1.606202e+01 6.427635e+00 
363 363 1.606612e+01 1.606202e+01 9.640434e+00 
364 364 1.606216e+01 1.606598e+01 1.284927e+01 
365 365 1.606216e+01 1.606202e+01 1.606206e+01 
366 366 1.606612e+01 1.606598e+01 1.927486e+01 
367 367 1.606216e+01 1.606598e+01 2.248766e+01 
368 368 1.606612e+01 1.927482e+01 2.570046e+01 
369 369 1.606216e+01 1.927878e+01 3.210870e+00 
370 370 1.606216e+01 1.927878e+01 6.427635e+00 
371 371 1.606216e+01 1.927482e+01 9.636467e+00 
372 372 1.606612e+01 1.927482e+01 1.285323e+01 
373 373 1.606216e+01 1.927878e+01 1.606603e+01 
374 374 1.606216e+01 1.927482e+01 1.927486e+01 
375 375 1.606216e+01 1.927878e+01 2.249163e+01 
376 376 1.606216e+01 2.248762e+01 2.570046e+01 
377 377 1.606612e+01 2.248762e+01 3.214836e+00 
378 378 1.606612e+01 2.248762e+01 6.423668e+00 
379 379 1.606216e+01 2.248762e+01 9.640434e+00 
380 380 1.606216e+01 2.249158e+01 1.285323e+01 
381 381 1.606612e+01 2.249158e+01 1.606603e+01 
382 382 1.606612e+01 2.249158e+01 1.927883e+01 
383 383 1.606216e+01 2.248762e+01 2.249163e+01 
384 384 1.927892e+01 1.991047e-03 2.570046e+01 
385 385 1.927892e+01 1.991047e-03 3.210870e+00 
386 386 1.927892e+01 2.570041e+01 6.427635e+00 
387 387 1.927496e+01 1.991047e-03 9.640434e+00 
388 388 1.927496e+01 2.570041e+01 1.284927e+01 
389 389 1.927892e+01 1.991047e-03 1.606603e+01 
390 390 1.927892e+01 1.991047e-03 1.927486e+01 
391 391 1.927496e+01 1.991047e-03 2.249163e+01 
392 392 1.927496e+01 3.210823e+00 2.570046e+01 
393 393 1.927892e+01 3.210823e+00 3.210870e+00 
394 394 1.927496e+01 3.210823e+00 6.427635e+00 
395 395 1.927892e+01 3.210823e+00 9.640434e+00 
396 396 1.927892e+01 3.210823e+00 1.284927e+01 
397 397 1.927496e+01 3.210823e+00 1.606206e+01 
398 398 1.927892e+01 3.214790e+00 1.927883e+01 
399 399 1.927496e+01 3.210823e+00 2.249163e+01 
400 400 1.927892e+01 6.427588e+00 2.570046e+01 
401 401 1.927496e+01 6.427588e+00 3.214836e+00 
402 402 1.927496e+01 6.423622e+00 6.423668e+00 
403 403 1.927892e+01 6.423622e+00 9.640434e+00 
404 404 1.927892e+01 6.427588e+00 1.285323e+01 
405 405 1.927496e+01 6.423622e+00 1.606206e+01 
406 406 1.927496e+01 6.423622e+00 1.927883e+01 
407 407 1.927892e+01 6.427588e+00 2.248766e+01 
408 408 1.927496e+01 9.636420e+00 2.037530e-03 
409 409 1.927496e+01 9.640387e+00 3.210870e+00 
410 410 1.927496e+01 9.640387e+00 6.423668e+00 
411 411 1.927496e+01 9.636420e+00 9.636467e+00 
412 412 1.927496e+01 9.640387e+00 1.285323e+01 
413 413 1.927496e+01 9.640387e+00 1.606206e+01 
414 414 1.927892e+01 9.640387e+00 1.927486e+01 
415 415 1.927892e+01 9.636420e+00 2.248766e+01 
416 416 1.927892e+01 1.284922e+01 2.570046e+01 
417 417 1.927892e+01 1.284922e+01 3.214836e+00 
418 418 1.927496e+01 1.284922e+01 6.427635e+00 
419 419 1.927496e+01 1.285319e+01 9.636467e+00 
420 420 1.927496e+01 1.285319e+01 1.285323e+01 
421 421 1.927496e+01 1.285319e+01 1.606603e+01 
422 422 1.927496e+01 1.285319e+01 1.927486e+01 
423 423 1.927892e+01 1.285319e+01 2.248766e+01 
424 424 1.927892e+01 1.606202e+01 2.570046e+01 
425 425 1.927496e+01 1.606598e+01 3.214836e+00 
426 426 1.927496e+01 1.606202e+01 6.427635e+00 
427 427 1.927496e+01 1.606202e+01 9.636467e+00 
428 428 1.927892e+01 1.606202e+01 1.284927e+01 
429 429 1.927892e+01 1.606202e+01 1.606206e+01 
430 430 1.927496e+01 1.606598e+01 1.927883e+01 
431 431 1.927496e+01 1.606202e+01 2.249163e+01 
432 432 1.927496e+01 1.927878e+01 2.570046e+01 
433 433 1.927496e+01 1.927878e+01 3.214836e+00 
434 434 1.927496e+01 1.927878e+01 6.427635e+00 
435 435 1.927496e+01 1.927878e+01 9.636467e+00 
436 436 1.927892e+01 1.927878e+01 1.285323e+01 
437 437 1.927892e+01 1.927878e+01 1.606603e+01 
438 438 1.927496e+01 1.927878e+01 1.927486e+01 
439 439 1.927496e+01 1.927878e+01 2.248766e+01 
440 440 1.927892e+01 2.248762e+01 2.570046e+01 
441 441 1.927496e+01 2.248762e+01 3.210870e+00 
442 442 1.927496e+01 2.248762e+01 6.427635e+00 
443 443 1.927892e+01 2.248762e+01 9.640434e+00 
444 444 1.927892e+01 2.249158e+01 1.284927e+01 
445 445 1.927496e+01 2.248762e+01 1.606206e+01 
446 446 1.927892e+01 2.249158e+01 1.927883e+01 
447 447 1.927892e+01 2.248762e+01 2.249163e+01 
448 448 2.248775e+01 2.570041e+01 2.037530e-03 
449 449 2.249172e+01 2.570041e+01 3.210870e+00 
450 450 2.249172e+01 2.570041e+01 6.423668e+00 
451 451 2.249172e+01 2.570041e+01 9.640434e+00 
452 452 2.248775e+01 2.570041e+01 1.284927e+01 
453 453 2.249172e+01 1.991047e-03 1.606206e+01 
454 454 2.249172e+01 1.991047e-03 1.927486e+01 
455 455 2.248775e+01 1.991047e-03 2.248766e+01 
456 456 2.249172e+01 3.214790e+00 2.037530e-03 
457 457 2.249172e+01 3.210823e+00 3.214836e+00 
458 458 2.249172e+01 3.214790e+00 6.427635e+00 
459 459 2.249172e+01 3.214790e+00 9.640434e+00 
460 460 2.249172e+01 3.210823e+00 1.284927e+01 
461 461 2.249172e+01 3.214790e+00 1.606603e+01 
462 462 2.249172e+01 3.210823e+00 1.927486e+01 
463 463 2.249172e+01 3.210823e+00 2.248766e+01 
464 464 2.248775e+01 6.423622e+00 2.570046e+01 
465 465 2.249172e+01 6.427588e+00 3.210870e+00 
466 466 2.249172e+01 6.427588e+00 6.423668e+00 
467 467 2.248775e+01 6.423622e+00 9.640434e+00 
468 468 2.249172e+01 6.423622e+00 1.285323e+01 
469 469 2.248775e+01 6.427588e+00 1.606206e+01 
470 470 2.248775e+01 6.423622e+00 1.927883e+01 
471 471 2.249172e+01 6.423622e+00 2.248766e+01 
472 472 2.249172e+01 9.640387e+00 2.570046e+01 
473 473 2.248775e+01 9.640387e+00 3.214836e+00 
474 474 2.249172e+01 9.636420e+00 6.423668e+00 
475 475 2.249172e+01 9.640387e+00 9.640434e+00 
476 476 2.249172e+01 9.636420e+00 1.285323e+01 
477 477 2.249172e+01 9.636420e+00 1.606206e+01 
478 478 2.248775e+01 9.636420e+00 1.927486e+01 
479 479 2.248775e+01 9.636420e+00 2.248766e+01 
480 480 2.249172e+01 1.285319e+01 2.570046e+01 
481 481 2.248775e+01 1.285319e+01 3.210870e+00 
482 482 2.248775e+01 1.284922e+01 6.423668e+00 
483 483 2.248775e+01 1.284922e+01 9.636467e+00 
484 484 2.248775e+01 1.285319e+01 1.284927e+01 
485 485 2.248775e+01 1.285319e+01 1.606206e+01 
486 486 2.248775e+01 1.285319e+01 1.927486e+01 
487 487 2.249172e+01 1.284922e+01 2.248766e+01 
488 488 2.248775e+01 1.606598e+01 2.037530e-03 
489 489 2.249172e+01 1.606598e+01 3.214836e+00 
490 490 2.248775e+01 1.606202e+01 6.423668e+00 
491 491 2.248775e+01 1.606598e+01 9.636467e+00 
492 492 2.249172e+01 1.606202e+01 1.284927e+01 
493 493 2.248775e+01 1.606202e+01 1.606206e+01 
494 494 2.249172e+01 1.606202e+01 1.927486e+01 
495 495 2.248775e+01 1.606598e+01 2.249163e+01 
496 496 2.249172e+01 1.927878e+01 2.037530e-03 
497 497 2.249172e+01 1.927482e+01 3.214836e+00 
498 498 2.248775e+01 1.927878e+01 6.423668e+00 
499 499 2.248775e+01 1.927878e+01 9.636467e+00 
500 500 2.248775e+01 1.927878e+01 1.284927e+01 
501 501 2.248775e+01 1.927878e+01 1.606603e+01 
502 502 2.249172e+01 1.927482e+01 1.927883e+01 
503 503 2.249172e+01 1.927878e+01 2.248766e+01 
504 504 2.249172e+01 2.249158e+01 2.570046e+01 
505 505 2.248775e+01 2.249158e+01 3.210870e+00 
506 506 2.248775e+01 2.248762e+01 6.427635e+00 
507 507 2.249172e+01 2.249158e+01 9.636467e+00 
508 508 2.248775e+01 2.248762e+01 1.285323e+01 
509 509 2.248775e+01 2.249158e+01 1.606603e+01 
510 510 2.249172e+01 2.249158e+01 1.927486e+01 
511 511 2.249172e+01 2.248762e+01 2.248766e+01 
ITEM: TIMESTEP 
500 
ITEM: NUMBER OF ATOMS 
512 
ITEM: BOX BOUNDS 
0.000000e+00 2.570239e+01 xlo xhi 
0.000000e+00 2.570239e+01 xlo xhi 
0.000000e+00 2.570239e+01 xlo xhi 
ITEM: ATOMS id type x y z 
0 0 2.481724e+01 2.482689e+01 1.861174e-01 
1 1 5.353614e-01 2.444992e+01 2.116648e+00 
2 2 3.559185e-01 1.174412e+00 5.119701e+00 
3 3 1.206879e+00 2.566450e+01 8.525136e+00 
4 4 2.439273e+01 2.470780e+01 1.341555e+01 
5 5 1.183548e+00 2.466975e+01 1.555826e+01 
6 6 1.209840e+00 2.534316e+01 1.802019e+01 
7 7 2.464617e+01 2.457319e+01 2.248747e+01 
8 8 1.078623e+00 2.211066e+00 1.158930e+00 
9 9 1.126070e+00 3.497932e+00 4.341510e+00 
10 10 3.168249e-01 3.266526e+00 6.772177e+00 
11 11 2.945519e-01 2.958334e+00 9.667340e+00 
12 12 2.527284e+01 1.717107e+00 1.342866e+01 
13 13 1.426816e-01 3.780358e+00 1.549011e+01 
14 14 4.498525e-01 2.020228e+00 2.057457e+01 
15 15 2.533813e+01 2.067980e+00 2.374479e+01 
16 16 2.467718e+01 5.813868e+00 1.738597e-01 
17 17 4.930879e-01 5.732564e+00 2.410338e+00 
18 18 1.184791e+00 6.473233e+00 7.542847e+00 
19 19 2.463584e+01 6.779352e+00 1.025725e+01 
20 20 1.511910e+00 6.877614e+00 1.230434e+01 
21 21 1.361642e+00 6.282011e+00 1.634781e+01 
22 22 4.721027e-02 5.233732e+00 1.947938e+01 
23 23 2.525060e+01 7.712291e+00 2.142452e+01 
24 24 2.532866e+01 9.824703e+00 1.454721e+00 
25 25 2.471173e+01 9.527603e+00 3.681291e+00 
26 26 1.207019e+00 8.421803e+00 5.717977e+00 
27 27 2.509554e+01 9.199761e+00 8.244239e+00 
28 28 8.823455e-02 9.335153e+00 1.401557e+01 
29 29 1.860233e-01 8.436243e+00 1.645362e+01 
30 30 2.472596e+01 8.627336e+00 1.930659e+01 
31 31 2.496797e+01 9.538387e+00 2.348084e+01 
32 32 2.540799e+01 1.241359e+01 2.565276e+01 
33 33 2.455078e+01 1.268312e+01 3.109208e+00 
34 34 2.455484e+01 1.315752e+01 6.169191e+00 
35 35 2.497855e+01 1.216880e+01 1.070178e+01 
36 36 2.468551e+01 1.157897e+01 1.335430e+01 
37 37 2.465357e+01 1.421891e+01 1.558930e+01 
38 38 4.626265e-01 1.168109e+01 1.796956e+01 
39 39 2.545223e+01 1.297110e+01 2.250725e+01 
40 40 1.190221e+00 1.499156e+01 2.491532e+01 
41 41 2.528630e+01 1.723012e+01 1.918179e+00 
42 42 2.462798e+01 1.622061e+01 6.581257e+00 
43 43 2.469740e+01 1.493631e+01 9.787923e+00 
44 44 2.519194e+01 1.731700e+01 1.297337e+01 
45 45 2.471842e+01 1.705310e+01 1.617136e+01 
46 46 2.535302e+01 1.509044e+01 2.061817e+01 
47 47 2.467050e+01 1.708728e+01 2.297543e+01 
48 48 2.482961e+01 1.813542e+01 2.549164e+01 
49 49 2.551064e+01 1.972074e+01 1.993625e+00 
50 50 5.402203e-01 1.820757e+01 5.144330e+00 
51 51 2.453048e+01 1.976721e+01 1.080889e+01 
52 52 4.204705e-01 1.960323e+01 1.304986e+01 
53 53 2.450743e+01 1.989749e+01 1.559796e+01 
54 54 2.545187e+01 1.828180e+01 1.801809e+01 
55 55 6.015860e-01 1.974237e+01 2.373389e+01 
56 56 5.823074e-01 2.121976e+01 2.561776e+01 
57 57 4.233781e-01 2.217255e+01 3.142103e+00 
58 58 2.474012e+01 2.122386e+01 7.442386e+00 
59 59 1.310117e+00 2.199173e+01 1.073514e+01 
60 60 2.457712e+01 2.216163e+01 1.404217e+01 
61 61 3.576596e-01 2.187467e+01 1.727685e+01 
62 62 2.891630e-01 2.321229e+01 1.970269e+01 
63 63 2.538607e+01 2.177374e+01 2.208276e+01 
64 64 4.653625e+00 1.107950e+00 3.335691e-01 
65 65 2.439386e+00 5.424945e-01 2.578794e+00 
66 66 2.856425e+00 1.146215e+00 6.842246e+00 
67 67 4.509879e+00 2.556113e-01 9.617746e+00 
68 68 3.602352e+00 2.459974e+01 1.162520e+01 
69 69 4.110410e+00 1.025444e+00 1.656540e+01 
70 70 3.998503e+00 2.503089e+01 1.879723e+01 
71 71 4.487057e+00 2.505679e+01 2.374942e+01 
72 72 4.371936e+00 4.131657e+00 1.207874e+00 
73 73 3.630208e+00 2.723394e+00 3.945928e+00 
74 74 2.982041e+00 4.679334e+00 5.982214e+00 
75 75 3.098611e+00 3.101615e+00 8.447884e+00 
76 76 2.258510e+00 3.934533e+00 1.387250e+01 
77 77 2.942073e+00 3.653605e+00 1.657624e+01 
78 78 2.817271e+00 3.280436e+00 1.919567e+01 
79 79 2.237031e+00 4.362223e+00 2.152601e+01 
80 80 4.630853e+00 6.970999e+00 1.268179e+00 
81 81 2.565870e+00 7.067254e+00 3.972408e+00 
82 82 4.545797e+00 7.522440e+00 6.042544e+00 
83 83 1.941186e+00 5.255135e+00 1.001723e+01 
84 84 3.901695e+00 5.554428e+00 1.239199e+01 
85 85 3.422892e+00 6.122679e+00 1.482160e+01 
86 86 3.305608e+00 6.460167e+00 1.802221e+01 
87 87 4.352074e+00 7.439007e+00 2.141442e+01 
88 88 2.104342e+00 9.162588e+00 1.094104e+00 
89 89 4.697116e+00 9.016113e+00 3.491056e+00 
90 90 3.586077e+00 1.094183e+01 5.848228e+00 
91 91 2.264571e+00 1.070438e+01 1.081870e+01 
92 92 3.262322e+00 8.428256e+00 1.390184e+01 
93 93 1.986860e+00 1.036796e+01 1.593869e+01 
94 94 2.119186e+00 9.695890e+00 1.918564e+01 
95 95 2.145209e+00 9.865509e+00 2.396150e+01 
96 96 2.158437e+00 1.174852e+01 1.086146e+00 
97 97 4.062427e+00 1.381469e+01 3.130984e+00 
98 98 3.556122e+00 1.394307e+01 6.325729e+00 
99 99 4.477102e+00 1.386212e+01 1.074667e+01 
100 100 2.108642e+00 1.376965e+01 1.329768e+01 
101 101 4.594226e+00 1.215286e+01 1.524472e+01 
102 102 3.151112e+00 1.281627e+01 1.946849e+01 
103 103 2.251589e+00 1.261016e+01 2.258086e+01 
104 104 3.258458e+00 1.734790e+01 8.843711e-02 
105 105 4.712571e+00 1.633532e+01 2.984421e+00 
106 106 4.507895e+00 1.682228e+01 5.523437e+00 
107 107 2.263591e+00 1.627074e+01 8.533129e+00 
108 108 3.493914e+00 1.730109e+01 1.388448e+01 
109 109 2.136454e+00 1.506750e+01 1.570871e+01 
110 110 2.248985e+00 1.720490e+01 2.046573e+01 
111 111 2.149248e+00 1.726289e+01 2.350038e+01 
112 112 4.349213e+00 2.027424e+01 2.465682e+01 